TITLE="fun3d_case_title"
VARIABLES="Iteration" "R_1" "R_2" "R_3" "R_4" "R_5" "R_6" "C_L" "C_D" "C_M_x" "C_M_y" "C_M_z" "Wall Time" "C_x" "C_y" "C_z" "C_Lp" "C_Dp" "C_Lv" "C_Dv" "C_M_xp" "C_M_yp" "C_M_zp" "C_M_xv" "C_M_yv" "C_M_zv" "C_xp" "C_yp" "C_zp" "C_xv" "C_yv" "C_zv"
ZONE  I=500 F=POINT
1  0.0000000000E+00  0.0000000000E+00  0.0000000000E+00  0.0000000000E+00  0.0000000000E+00  0.0000000000E+00  0.0000000000E+00  0.0000000000E+00  0.0000000000E+00  0.0000000000E+00  0.0000000000E+00  0.0000000000E+00  0.0000000000E+00  0.0000000000E+00  0.0000000000E+00  0.0000000000E+00  0.0000000000E+00  0.0000000000E+00  0.0000000000E+00  0.0000000000E+00  0.0000000000E+00  0.0000000000E+00  0.0000000000E+00  0.0000000000E+00  0.0000000000E+00  0.0000000000E+00  0.0000000000E+00  0.0000000000E+00  0.0000000000E+00  0.0000000000E+00  0.0000000000E+00
2  0.0000000000E+00  0.0000000000E+00  0.0000000000E+00  0.0000000000E+00  0.0000000000E+00  0.0000000000E+00  0.0000000000E+00  0.0000000000E+00  0.0000000000E+00  0.0000000000E+00  0.0000000000E+00  0.0000000000E+00  0.0000000000E+00  0.0000000000E+00  0.0000000000E+00  0.0000000000E+00  0.0000000000E+00  0.0000000000E+00  0.0000000000E+00  0.0000000000E+00  0.0000000000E+00  0.0000000000E+00  0.0000000000E+00  0.0000000000E+00  0.0000000000E+00  0.0000000000E+00  0.0000000000E+00  0.0000000000E+00  0.0000000000E+00  0.0000000000E+00  0.0000000000E+00
3  0.0000000000E+00  0.0000000000E+00  0.0000000000E+00  0.0000000000E+00  0.0000000000E+00  0.0000000000E+00  0.0000000000E+00  0.0000000000E+00  0.0000000000E+00  0.0000000000E+00  0.0000000000E+00  0.0000000000E+00  0.0000000000E+00  0.0000000000E+00  0.0000000000E+00  0.0000000000E+00  0.0000000000E+00  0.0000000000E+00  0.0000000000E+00  0.0000000000E+00  0.0000000000E+00  0.0000000000E+00  0.0000000000E+00  0.0000000000E+00  0.0000000000E+00  0.0000000000E+00  0.0000000000E+00  0.0000000000E+00  0.0000000000E+00  0.0000000000E+00  0.0000000000E+00
4  0.0000000000E+00  0.0000000000E+00  0.0000000000E+00  0.0000000000E+00  0.0000000000E+00  0.0000000000E+00  0.0000000000E+00  0.0000000000E+00  0.0000000000E+00  0.0000000000E+00  0.0000000000E+00  0.0000000000E+00  0.0000000000E+00  0.0000000000E+00  0.0000000000E+00  0.0000000000E+00  0.0000000000E+00  0.0000000000E+00  0.0000000000E+00  0.0000000000E+00  0.0000000000E+00  0.0000000000E+00  0.0000000000E+00  0.0000000000E+00  0.0000000000E+00  0.0000000000E+00  0.0000000000E+00  0.0000000000E+00  0.0000000000E+00  0.0000000000E+00  0.0000000000E+00
5  0.0000000000E+00  0.0000000000E+00  0.0000000000E+00  0.0000000000E+00  0.0000000000E+00  0.0000000000E+00  0.0000000000E+00  0.0000000000E+00  0.0000000000E+00  0.0000000000E+00  0.0000000000E+00  0.0000000000E+00  0.0000000000E+00  0.0000000000E+00  0.0000000000E+00  0.0000000000E+00  0.0000000000E+00  0.0000000000E+00  0.0000000000E+00  0.0000000000E+00  0.0000000000E+00  0.0000000000E+00  0.0000000000E+00  0.0000000000E+00  0.0000000000E+00  0.0000000000E+00  0.0000000000E+00  0.0000000000E+00  0.0000000000E+00  0.0000000000E+00  0.0000000000E+00
6  0.0000000000E+00  0.0000000000E+00  0.0000000000E+00  0.0000000000E+00  0.0000000000E+00  0.0000000000E+00  0.0000000000E+00  0.0000000000E+00  0.0000000000E+00  0.0000000000E+00  0.0000000000E+00  0.0000000000E+00  0.0000000000E+00  0.0000000000E+00  0.0000000000E+00  0.0000000000E+00  0.0000000000E+00  0.0000000000E+00  0.0000000000E+00  0.0000000000E+00  0.0000000000E+00  0.0000000000E+00  0.0000000000E+00  0.0000000000E+00  0.0000000000E+00  0.0000000000E+00  0.0000000000E+00  0.0000000000E+00  0.0000000000E+00  0.0000000000E+00  0.0000000000E+00
7  0.0000000000E+00  0.0000000000E+00  0.0000000000E+00  0.0000000000E+00  0.0000000000E+00  0.0000000000E+00  0.0000000000E+00  0.0000000000E+00  0.0000000000E+00  0.0000000000E+00  0.0000000000E+00  0.0000000000E+00  0.0000000000E+00  0.0000000000E+00  0.0000000000E+00  0.0000000000E+00  0.0000000000E+00  0.0000000000E+00  0.0000000000E+00  0.0000000000E+00  0.0000000000E+00  0.0000000000E+00  0.0000000000E+00  0.0000000000E+00  0.0000000000E+00  0.0000000000E+00  0.0000000000E+00  0.0000000000E+00  0.0000000000E+00  0.0000000000E+00  0.0000000000E+00
8  0.0000000000E+00  0.0000000000E+00  0.0000000000E+00  0.0000000000E+00  0.0000000000E+00  0.0000000000E+00  0.0000000000E+00  0.0000000000E+00  0.0000000000E+00  0.0000000000E+00  0.0000000000E+00  0.0000000000E+00  0.0000000000E+00  0.0000000000E+00  0.0000000000E+00  0.0000000000E+00  0.0000000000E+00  0.0000000000E+00  0.0000000000E+00  0.0000000000E+00  0.0000000000E+00  0.0000000000E+00  0.0000000000E+00  0.0000000000E+00  0.0000000000E+00  0.0000000000E+00  0.0000000000E+00  0.0000000000E+00  0.0000000000E+00  0.0000000000E+00  0.0000000000E+00
9  0.0000000000E+00  0.0000000000E+00  0.0000000000E+00  0.0000000000E+00  0.0000000000E+00  0.0000000000E+00  0.0000000000E+00  0.0000000000E+00  0.0000000000E+00  0.0000000000E+00  0.0000000000E+00  0.0000000000E+00  0.0000000000E+00  0.0000000000E+00  0.0000000000E+00  0.0000000000E+00  0.0000000000E+00  0.0000000000E+00  0.0000000000E+00  0.0000000000E+00  0.0000000000E+00  0.0000000000E+00  0.0000000000E+00  0.0000000000E+00  0.0000000000E+00  0.0000000000E+00  0.0000000000E+00  0.0000000000E+00  0.0000000000E+00  0.0000000000E+00  0.0000000000E+00
10  0.0000000000E+00  0.0000000000E+00  0.0000000000E+00  0.0000000000E+00  0.0000000000E+00  0.0000000000E+00  0.0000000000E+00  0.0000000000E+00  0.0000000000E+00  0.0000000000E+00  0.0000000000E+00  0.0000000000E+00  0.0000000000E+00  0.0000000000E+00  0.0000000000E+00  0.0000000000E+00  0.0000000000E+00  0.0000000000E+00  0.0000000000E+00  0.0000000000E+00  0.0000000000E+00  0.0000000000E+00  0.0000000000E+00  0.0000000000E+00  0.0000000000E+00  0.0000000000E+00  0.0000000000E+00  0.0000000000E+00  0.0000000000E+00  0.0000000000E+00  0.0000000000E+00
11  0.0000000000E+00  0.0000000000E+00  0.0000000000E+00  0.0000000000E+00  0.0000000000E+00  0.0000000000E+00  0.0000000000E+00  0.0000000000E+00  0.0000000000E+00  0.0000000000E+00  0.0000000000E+00  0.0000000000E+00  0.0000000000E+00  0.0000000000E+00  0.0000000000E+00  0.0000000000E+00  0.0000000000E+00  0.0000000000E+00  0.0000000000E+00  0.0000000000E+00  0.0000000000E+00  0.0000000000E+00  0.0000000000E+00  0.0000000000E+00  0.0000000000E+00  0.0000000000E+00  0.0000000000E+00  0.0000000000E+00  0.0000000000E+00  0.0000000000E+00  0.0000000000E+00
12  0.7792546143E-36  0.2673895338E-37 -0.2074730507E-37 -0.5123852972E-37  0.1645002261E-35  0.2682404254E-35  0.1402651587E-32  0.7226532212E-33  0.7454717928E-33 -0.7920803449E-33 -0.2781789670E-33  0.0000000000E+00  0.4681066031E-33 -0.6128612202E-34  0.1506829572E-32  0.1402650844E-32  0.7226543184E-33  0.7423534391E-39 -0.1097159570E-38  0.7454715227E-33 -0.7920795876E-33 -0.2781795624E-33  0.2700214193E-39 -0.7573312915E-39  0.5953469821E-39  0.4681078125E-33 -0.6128611957E-34  0.1506829032E-32 -0.1209399572E-38 -0.2451874698E-41  0.5405556624E-39
13  0.3235418193E-36  0.1374408547E-37  0.4953095041E-37  0.1344328773E-36  0.1169751600E-35  0.1579484375E-35  0.2643618466E-32  0.9278161329E-33  0.1366937076E-32 -0.1478371400E-32 -0.2685036490E-33  0.0000000000E+00  0.4546609921E-33 -0.5758403849E-34  0.2764569542E-32  0.2643617829E-32  0.9278172658E-33  0.6365316046E-39 -0.1132891966E-38  0.1366936860E-32 -0.1478370708E-32 -0.2685042530E-33  0.2155931606E-39 -0.6923805743E-39  0.6039685559E-39  0.4546622183E-33 -0.5758403590E-34  0.2764569111E-32 -0.1226213344E-38 -0.2589252924E-41  0.4301366339E-39
14  0.5014499912E-37  0.7331346658E-37  0.6311032973E-37  0.2295958688E-36  0.6241826445E-36  0.5562692935E-36  0.3489641295E-32  0.1063539307E-32  0.1789707251E-32 -0.1966436078E-32 -0.2582601241E-33  0.0000000000E+00  0.4414119039E-33 -0.5307914991E-34  0.3621307465E-32  0.3489640812E-32  0.1063540465E-32  0.4833709324E-39 -0.1157621707E-38  0.1789707112E-32 -0.1966435488E-32 -0.2582607274E-33  0.1390020456E-39 -0.5900086130E-39  0.6032568408E-39  0.4414131278E-33 -0.5307914738E-34  0.3621307190E-32 -0.1223971314E-38 -0.2534189256E-41  0.2750085419E-39
15 -0.4324208109E-37  0.1058931555E-36  0.4934970934E-37  0.2470269992E-36  0.2354389237E-37 -0.2345170404E-36  0.3895782529E-32  0.1125321260E-32  0.1991619630E-32 -0.2221109110E-32 -0.2498035181E-33  0.0000000000E+00  0.4317295646E-33 -0.4862928556E-34  0.4032006824E-32  0.3895782207E-32  0.1125322430E-32  0.3210357160E-39 -0.1170698619E-38  0.1991619571E-32 -0.2221108634E-32 -0.2498041143E-33  0.5898418503E-40 -0.4759981335E-39  0.5961861622E-39  0.4317307733E-33 -0.4862928329E-34  0.4032006711E-32 -0.1208660344E-38 -0.2263650767E-41  0.1128687803E-39
16 -0.3285703067E-37  0.9334369042E-37  0.2397370355E-37  0.2184174897E-36 -0.3901688854E-36 -0.6960289198E-36  0.3912502014E-32  0.1122750681E-32  0.1998300776E-32 -0.2259706466E-32 -0.2438960407E-33  0.0000000000E+00  0.4262947302E-33 -0.4474806488E-34  0.4048025927E-32  0.3912501833E-32  0.1122751855E-32  0.1809780794E-39 -0.1174268444E-38  0.1998300785E-32 -0.2259706094E-32 -0.2438966272E-33 -0.9277835284E-41 -0.3722073468E-39  0.5864726236E-39  0.4262959180E-33 -0.4474806304E-34  0.4048025952E-32 -0.1187855182E-38 -0.1841139436E-41 -0.2568095975E-40
17  0.1989168369E-37  0.7284122385E-37  0.1288895497E-38  0.1742340222E-36 -0.4164202335E-36 -0.8338642215E-36  0.3653547168E-32  0.1074975857E-32  0.1867060426E-32 -0.2137688068E-32 -0.2402821675E-33  0.0000000000E+00  0.4242127505E-33 -0.4164834164E-34  0.3784709176E-32  0.3653547086E-32  0.1074977029E-32  0.8184045666E-40 -0.1171588444E-38  0.1867060483E-32 -0.2137687776E-32 -0.2402827448E-33 -0.5698976152E-40 -0.2924872834E-39  0.5772521332E-39  0.4242139185E-33 -0.4164834029E-34  0.3784709298E-32 -0.1168000829E-38 -0.1351850256E-41 -0.1228470820E-39
18  0.7173685490E-37  0.7712627539E-37 -0.1077580982E-38  0.1380907446E-36 -0.1940497971E-36 -0.7374996900E-36  0.3254053212E-32  0.1004332547E-32  0.1665849223E-32 -0.1926799229E-32 -0.2382569904E-33  0.0000000000E+00  0.4240140687E-33 -0.3934144519E-34  0.3379017348E-32  0.3254053183E-32  0.1004333713E-32  0.2851316007E-40 -0.1165687885E-38  0.1665849306E-32 -0.1926798987E-32 -0.2382575608E-33 -0.8207641486E-40 -0.2418641317E-39  0.5703658860E-39  0.4240152216E-33 -0.3934144432E-34  0.3379017523E-32 -0.1152929725E-38 -0.8645510200E-42 -0.1743395958E-39
19  0.1022717699E-36  0.1085315264E-36  0.2132558152E-37  0.1169305552E-36  0.1345216374E-37 -0.5424953063E-36  0.2847259637E-32  0.9325087654E-33  0.1461520473E-32 -0.1701785325E-32 -0.2368854100E-33  0.0000000000E+00  0.4239204145E-33 -0.3774462131E-34  0.2965931813E-32  0.2847259623E-32  0.9325099236E-33  0.1425289659E-40 -0.1158249619E-38  0.1461520561E-32 -0.1701785107E-32 -0.2368859760E-33 -0.8803581837E-40 -0.2179196905E-39  0.5660018539E-39  0.4239215577E-33 -0.3774462089E-34  0.2965932000E-32 -0.1143128194E-38 -0.4270492516E-42 -0.1870915726E-39
20  0.1126553203E-36  0.1464672421E-36  0.4834943126E-37  0.1012658007E-36  0.1239487659E-36 -0.3559744088E-36  0.2487224464E-32  0.8690515526E-33  0.1281193594E-32 -0.1495763145E-32 -0.2360415919E-33  0.0000000000E+00  0.4239467111E-33 -0.3670168482E-34  0.2600347154E-32  0.2487224436E-32  0.8690527044E-33  0.2852932305E-40 -0.1151740513E-38  0.1281193674E-32 -0.1495762931E-32 -0.2360421563E-33 -0.8024563641E-40 -0.2145426236E-39  0.5644483771E-39  0.4239478503E-33 -0.3670168478E-34  0.2600347326E-32 -0.1139197051E-38 -0.4155573824E-43 -0.1719017427E-39
21  0.1139249763E-36  0.1663901816E-36  0.6065457720E-37  0.8500983887E-37  0.1802649243E-36 -0.2587143687E-36  0.2237487977E-32  0.8236761880E-33  0.1156499366E-32 -0.1347980093E-32 -0.2348891755E-33  0.0000000000E+00  0.4226269862E-33 -0.3606828744E-34  0.2346525376E-32  0.2237487920E-32  0.8236773332E-33  0.5647598644E-40 -0.1145185563E-38  0.1156499432E-32 -0.1347979870E-32 -0.2348897395E-33 -0.6590417613E-40 -0.2230865029E-39  0.5639306889E-39  0.4226281238E-33 -0.3606828772E-34  0.2346525519E-32 -0.1137594574E-38  0.2790721094E-42 -0.1432413969E-39
22  0.1132292368E-36  0.1698599779E-36  0.5505587547E-37  0.6872110228E-37  0.2070346550E-36 -0.2298223117E-36  0.2091590439E-32  0.7957804199E-33  0.1084098747E-32 -0.1258031385E-32 -0.2335951406E-33  0.0000000000E+00  0.4204898591E-33 -0.3573949989E-34  0.2198000300E-32  0.2091590350E-32  0.7957815597E-33  0.8909453134E-40 -0.1139813204E-38  0.1084098797E-32 -0.1258031147E-32 -0.2335957049E-33 -0.4949967642E-40 -0.2375328045E-39  0.5642876241E-39  0.4204909970E-33 -0.3573950043E-34  0.2198000411E-32 -0.1137967983E-38  0.5457514127E-42 -0.1101855005E-39
23  0.1092453750E-36  0.1528417599E-36  0.4108806094E-37  0.5405453354E-37  0.2082949956E-36 -0.2211535027E-36  0.2041007357E-32  0.7840477288E-33  0.1059488410E-32 -0.1223817432E-32 -0.2321641023E-33  0.0000000000E+00  0.4177190738E-33 -0.3561812315E-34  0.2146148329E-32  0.2041007240E-32  0.7840488643E-33  0.1172267640E-39 -0.1135565896E-38  0.1059488445E-32 -0.1223817180E-32 -0.2321646671E-33 -0.3547353532E-40 -0.2517965048E-39  0.5647164761E-39  0.4177202125E-33 -0.3561812391E-34  0.2146148410E-32 -0.1138670313E-38  0.7563649019E-42 -0.8174312250E-40
24  0.9770454580E-37  0.1254147866E-36  0.2717494921E-37  0.4313704047E-37  0.1740230643E-36 -0.1977763624E-36  0.2056440476E-32  0.7838501577E-33  0.1067899718E-32 -0.1229898668E-32 -0.2307972742E-33  0.0000000000E+00  0.4148445713E-33 -0.3563872088E-34  0.2161312676E-32  0.2056440338E-32  0.7838512901E-33  0.1381262916E-39 -0.1132453331E-38  0.1067899743E-32 -0.1229898404E-32 -0.2307978392E-33 -0.2513882537E-40 -0.2634045488E-39  0.5650063953E-39  0.4148457105E-33 -0.3563872181E-34  0.2161312737E-32 -0.1139234199E-38  0.9232847761E-42 -0.6062061438E-40
25  0.8119768320E-37  0.9550552012E-37  0.1706634464E-37  0.3620093403E-37  0.1134233965E-36 -0.1507360970E-36  0.2108432692E-32  0.7906702252E-33  0.1094467698E-32 -0.1259958126E-32 -0.2297730065E-33  0.0000000000E+00  0.4125326731E-33 -0.3574925058E-34  0.2213699306E-32  0.2108432542E-32  0.7906713558E-33  0.1503878499E-39 -0.1130601971E-38  0.1094467717E-32 -0.1259957855E-32 -0.2297735716E-33 -0.1915641677E-40 -0.2708464109E-39  0.5651216020E-39  0.4125338127E-33 -0.3574925163E-34  0.2213699354E-32 -0.1139540163E-38  0.1048642098E-41 -0.4822385146E-40
26  0.6576218923E-37  0.6893498309E-37  0.1187086368E-37  0.3372306203E-37  0.5091188894E-37 -0.8846746235E-37  0.2175481141E-32  0.8009411900E-33  0.1128413576E-32 -0.1301179089E-32 -0.2291687982E-33  0.0000000000E+00  0.4110047579E-33 -0.3591430299E-34  0.2281512673E-32  0.2175480986E-32  0.8009423198E-33  0.1554383498E-39 -0.1129740063E-38  0.1128413593E-32 -0.1301178815E-32 -0.2291693632E-33 -0.1678572310E-40 -0.2744031230E-39  0.5650728625E-39  0.4110058975E-33 -0.3591430414E-34  0.2281512716E-32 -0.1139568359E-38  0.1145947505E-41 -0.4310041112E-40
27  0.5324960399E-37  0.4751739257E-37  0.1073667474E-37  0.3461933790E-37  0.7420442553E-38 -0.2679325148E-37  0.2238274417E-32  0.8115698087E-33  0.1160072463E-32 -0.1341485377E-32 -0.2291110304E-33  0.0000000000E+00  0.4105679660E-33 -0.3610615120E-34  0.2345197618E-32  0.2238274262E-32  0.8115709385E-33  0.1553871213E-39 -0.1129854519E-38  0.1160072480E-32 -0.1341485102E-32 -0.2291115955E-33 -0.1697369996E-40 -0.2749837717E-39  0.5650548301E-39  0.4105691056E-33 -0.3610615242E-34  0.2345197661E-32 -0.1139672180E-38  0.1220589377E-41 -0.4317073645E-40
28  0.4276828197E-37  0.3239614651E-37  0.1225854413E-37  0.3705051116E-37 -0.9878882102E-38  0.1303967897E-37  0.2290190741E-32  0.8212035859E-33  0.1186164177E-32 -0.1376036223E-32 -0.2294941857E-33  0.0000000000E+00  0.4110402095E-33 -0.3630336891E-34  0.2397998104E-32  0.2290190589E-32  0.8212047164E-33  0.1522449902E-39 -0.1130517868E-38  0.1186164196E-32 -0.1376035949E-32 -0.2294947508E-33 -0.1869546649E-40 -0.2735650418E-39  0.5650452537E-39  0.4110413493E-33 -0.3630337019E-34  0.2397998150E-32 -0.1139779827E-38  0.1284067523E-41 -0.4638032095E-40
29  0.3263919644E-37  0.2275156358E-37  0.1437221521E-37  0.3856079866E-37 -0.1042973512E-37  0.2184907068E-37  0.2326315134E-32  0.8288166092E-33  0.1204273651E-32 -0.1400910535E-32 -0.2302299164E-33  0.0000000000E+00  0.4122646388E-33 -0.3648912004E-34  0.2434895674E-32  0.2326314986E-32  0.8288177409E-33  0.1480333641E-39 -0.1131638808E-38  0.1204273672E-32 -0.1400910263E-32 -0.2302304816E-33 -0.2094992768E-40 -0.2713011385E-39  0.5651831981E-39  0.4122657790E-33 -0.3648912138E-34  0.2434895725E-32 -0.1140152396E-38  0.1340198828E-41 -0.5072261214E-40
30  0.2365584904E-37  0.1762574828E-37  0.1522269651E-37  0.3741561894E-37 -0.4194109206E-38  0.1631225253E-37  0.2348281125E-32  0.8343028383E-33  0.1215252515E-32 -0.1416430877E-32 -0.2311181774E-33  0.0000000000E+00  0.4138531656E-33 -0.3664739017E-34  0.2457480625E-32  0.2348280981E-32  0.8343039712E-33  0.1438678303E-39 -0.1132901689E-38  0.1215252538E-32 -0.1416430608E-32 -0.2311187428E-33 -0.2316697218E-40 -0.2688490758E-39  0.5654153278E-39  0.4138543062E-33 -0.3664739156E-34  0.2457480680E-32 -0.1140672753E-38  0.1394041169E-41 -0.5504415899E-40
31  0.1746555047E-37  0.1528877326E-37  0.1432565387E-37  0.3313187256E-37  0.1735857736E-38  0.9002204657E-38  0.2359318428E-32  0.8379257243E-33  0.1220744420E-32 -0.1424246480E-32 -0.2320087509E-33  0.0000000000E+00  0.4155044041E-33 -0.3677168575E-34  0.2468979355E-32  0.2359318288E-32  0.8379268584E-33  0.1403362019E-39 -0.1134095041E-38  0.1220744445E-32 -0.1424246214E-32 -0.2320093166E-33 -0.2504531720E-40 -0.2666184313E-39  0.5656894303E-39  0.4155055454E-33 -0.3677168720E-34  0.2468979414E-32 -0.1141234715E-38  0.1447955967E-41 -0.5872935752E-40
32  0.1445768781E-37  0.1427357099E-37  0.1236350255E-37  0.2643895691E-37  0.5524911765E-38  0.3639081762E-38  0.2362832257E-32  0.8401267190E-33  0.1222466965E-32 -0.1426404557E-32 -0.2328266854E-33  0.0000000000E+00  0.4170617908E-33 -0.3686267402E-34  0.2472822000E-32  0.2362832120E-32  0.8401278541E-33  0.1374921927E-39 -0.1135033323E-38  0.1222466991E-32 -0.1426404292E-32 -0.2328272513E-33 -0.2654764403E-40 -0.2646966091E-39  0.5659193958E-39  0.4170629325E-33 -0.3686267553E-34  0.2472822062E-32 -0.1141664885E-38  0.1504603419E-41 -0.6169309072E-40
33  0.1353147343E-37  0.1367526458E-37  0.1007147754E-37  0.1872998231E-37  0.7607685649E-38 -0.2210877791E-41  0.2361542237E-32  0.8411789644E-33  0.1221797063E-32 -0.1424718929E-32 -0.2334749639E-33  0.0000000000E+00  0.4183220600E-33 -0.3692051489E-34  0.2471734298E-32  0.2361542101E-32  0.8411801002E-33  0.1355584495E-39 -0.1135803760E-38  0.1221797090E-32 -0.1424718666E-32 -0.2334755300E-33 -0.2757634340E-40 -0.2633131600E-39  0.5661622527E-39  0.4183232020E-33 -0.3692051645E-34  0.2471734362E-32 -0.1142087827E-38  0.1560910247E-41 -0.6373124111E-40
34  0.1353039251E-37  0.1294086983E-37  0.8121073956E-38  0.1185455409E-37  0.9355566290E-38  0.9513595856E-38  0.2357799022E-32  0.8414016732E-33  0.1219908261E-32 -0.1420984888E-32 -0.2339095306E-33  0.0000000000E+00  0.4191913877E-33 -0.3694648650E-34  0.2468086624E-32  0.2357798888E-32  0.8414028095E-33  0.1342819006E-39 -0.1136298413E-38  0.1219908289E-32 -0.1420984625E-32 -0.2339100969E-33 -0.2825036263E-40 -0.2623372529E-39  0.5663394440E-39  0.4191925301E-33 -0.3694648812E-34  0.2468086689E-32 -0.1142353294E-38  0.1616290474E-41 -0.6507429178E-40
35  0.1343683550E-37  0.1188587469E-37  0.6678440445E-38  0.7067910372E-38  0.1065931960E-37 -0.2020001026E-38  0.2353076852E-32  0.8410878623E-33  0.1217536987E-32 -0.1416460037E-32 -0.2341526714E-33  0.0000000000E+00  0.4197023406E-33 -0.3694842913E-34  0.2463381701E-32  0.2353076718E-32  0.8410889988E-33  0.1334718599E-39 -0.1136524123E-38  0.1217537016E-32 -0.1416459775E-32 -0.2341532378E-33 -0.2866705969E-40 -0.2616816323E-39  0.5664332540E-39  0.4197034830E-33 -0.3694843080E-34  0.2463381767E-32 -0.1142434913E-38  0.1669473767E-41 -0.6591122044E-40
36  0.1271258061E-37  0.1059838515E-37  0.5703716289E-38  0.4496896326E-38  0.1118292217E-37 -0.8709991008E-38  0.2348009730E-32  0.8404380901E-33  0.1214999393E-32 -0.1411746784E-32 -0.2342527735E-33  0.0000000000E+00  0.4199423363E-33 -0.3693400767E-34  0.2458278729E-32  0.2348009597E-32  0.8404392266E-33  0.1329776979E-39 -0.1136520819E-38  0.1214999422E-32 -0.1411746522E-32 -0.2342533399E-33 -0.2890585167E-40 -0.2612675414E-39  0.5664477771E-39  0.4199434787E-33 -0.3693400939E-34  0.2458278796E-32 -0.1142345849E-38  0.1720225334E-41 -0.6639730119E-40
37  0.1111029110E-37  0.9251866211E-38  0.5053717178E-38  0.3473090699E-38  0.1078127334E-37 -0.1262756946E-37  0.2343359990E-32  0.8396410134E-33  0.1212673409E-32 -0.1407571900E-32 -0.2342414000E-33  0.0000000000E+00  0.4199647879E-33 -0.3691022362E-34  0.2453561218E-32  0.2343359857E-32  0.8396421497E-33  0.1326989554E-39 -0.1136361140E-38  0.1212673438E-32 -0.1407571639E-32 -0.2342419664E-33 -0.2902441514E-40 -0.2610301266E-39  0.5664043225E-39  0.4199659300E-33 -0.3691022539E-34  0.2453561285E-32 -0.1142140193E-38  0.1766278523E-41 -0.6664408110E-40
38  0.8651577490E-38  0.7969599447E-38  0.4631547968E-38  0.3235206915E-38  0.9543961633E-38 -0.1506647472E-37  0.2339330592E-32  0.8388268623E-33  0.1210659024E-32 -0.1404129411E-32 -0.2341682666E-33  0.0000000000E+00  0.4198627032E-33 -0.3688315429E-34  0.2449451660E-32  0.2339330459E-32  0.8388279984E-33  0.1325543228E-39 -0.1136104404E-38  0.1210659053E-32 -0.1404129150E-32 -0.2341688329E-33 -0.2906894170E-40 -0.2609090413E-39  0.5663218602E-39  0.4198638450E-33 -0.3688315610E-34  0.2449451726E-32 -0.1141862242E-38  0.1806843049E-41 -0.6674193465E-40
39  0.5713829890E-38  0.6821141840E-38  0.4302672921E-38  0.3151138358E-38  0.7701187282E-38 -0.1496837646E-37  0.2335989536E-32  0.8380793310E-33  0.1208989304E-32 -0.1401445105E-32 -0.2340706542E-33  0.0000000000E+00  0.4197066968E-33 -0.3685699390E-34  0.2446031555E-32  0.2335989404E-32  0.8380804668E-33  0.1324946220E-39 -0.1135808353E-38  0.1208989333E-32 -0.1401444844E-32 -0.2340712204E-33 -0.2906924157E-40 -0.2608619660E-39  0.5662222837E-39  0.4197078383E-33 -0.3685699574E-34  0.2446031622E-32 -0.1141560322E-38  0.1841540918E-41 -0.6674931980E-40
40  0.3244817117E-38  0.5827279917E-38  0.3970174068E-38  0.2920799497E-38  0.5649489731E-38 -0.1316389118E-37  0.2333331567E-32  0.8374447516E-33  0.1207661107E-32 -0.1399451880E-32 -0.2339727431E-33  0.0000000000E+00  0.4195433095E-33 -0.3683413426E-34  0.2443303773E-32  0.2333331435E-32  0.8374458871E-33  0.1324904749E-39 -0.1135522870E-38  0.1207661136E-32 -0.1399451620E-32 -0.2339733092E-33 -0.2904437798E-40 -0.2608600573E-39  0.5661261890E-39  0.4195444508E-33 -0.3683413613E-34  0.2443303840E-32 -0.1141278456E-38  0.1870411496E-41 -0.6670383031E-40
41  0.1821030551E-38  0.4976185672E-38  0.3589470364E-38  0.2502765260E-38  0.3801722784E-38 -0.1040482752E-37  0.2331305080E-32  0.8369399464E-33  0.1206648338E-32 -0.1398038116E-32 -0.2338874445E-33  0.0000000000E+00  0.4193980694E-33 -0.3681556124E-34  0.2441220414E-32  0.2331304947E-32  0.8369410817E-33  0.1325178449E-39 -0.1135273372E-38  0.1206648367E-32 -0.1398037855E-32 -0.2338880106E-33 -0.2900843969E-40 -0.2608807052E-39  0.5660434482E-39  0.4193992104E-33 -0.3681556314E-34  0.2441220480E-32 -0.1141037501E-38  0.1893871600E-41 -0.6663355118E-40
42  0.1196308667E-38  0.4243616179E-38  0.3168167931E-38  0.1988905483E-38  0.2431960499E-38 -0.7494521065E-38  0.2329752843E-32  0.8365455216E-33  0.1205872531E-32 -0.1397035198E-32 -0.2338182831E-33  0.0000000000E+00  0.4192791798E-33 -0.3680092884E-34  0.2439623268E-32  0.2329752710E-32  0.8365466567E-33  0.1325737813E-39 -0.1135081195E-38  0.1205872560E-32 -0.1397034937E-32 -0.2338188491E-33 -0.2896465099E-40 -0.2609198405E-39  0.5659849100E-39  0.4192803207E-33 -0.3680093075E-34  0.2439623334E-32 -0.1140857957E-38  0.1912896414E-41 -0.6654509345E-40
43  0.9391954283E-39  0.3591316950E-38  0.2724588942E-38  0.1473016035E-38  0.1537309306E-38 -0.4902331547E-38  0.2328699580E-32  0.8362635614E-33  0.1205344824E-32 -0.1396398608E-32 -0.2337636778E-33  0.0000000000E+00  0.4191844003E-33 -0.3678984458E-34  0.2438537045E-32  0.2328699448E-32  0.8362646963E-33  0.1326289887E-39 -0.1134945099E-38  0.1205344853E-32 -0.1396398348E-32 -0.2337642437E-33 -0.2892717138E-40 -0.2609518097E-39  0.5659469983E-39  0.4191855411E-33 -0.3678984651E-34  0.2438537111E-32 -0.1140733515E-38  0.1927762534E-41 -0.6646709194E-40
44  0.7791897264E-39  0.3016984179E-38  0.2333112435E-38  0.1060305357E-38  0.1105654574E-38 -0.2798822740E-38  0.2328021713E-32  0.8360738165E-33  0.1205004065E-32 -0.1396010707E-32 -0.2337240673E-33  0.0000000000E+00  0.4191152485E-33 -0.3678202967E-34  0.2437836527E-32  0.2328021581E-32  0.8360749514E-33  0.1326863620E-39 -0.1134874257E-38  0.1205004093E-32 -0.1396010446E-32 -0.2337246333E-33 -0.2889511706E-40 -0.2609812948E-39  0.5659351064E-39  0.4191163892E-33 -0.3678203161E-34  0.2437836594E-32 -0.1140673712E-38  0.1939154979E-41 -0.6639828860E-40
45  0.6043425618E-39  0.2510461731E-38  0.2018060765E-38  0.7707882983E-39  0.9350097093E-39 -0.1169239344E-38  0.2327616355E-32  0.8359518923E-33  0.1204798997E-32 -0.1395786356E-32 -0.2336957810E-33  0.0000000000E+00  0.4190655663E-33 -0.3677667982E-34  0.2437416155E-32  0.2327616222E-32  0.8359530271E-33  0.1327432681E-39 -0.1134859608E-38  0.1204799026E-32 -0.1395786095E-32 -0.2336963469E-33 -0.2886872119E-40 -0.2610081141E-39  0.5659454963E-39  0.4190667069E-33 -0.3677668177E-34  0.2437416222E-32 -0.1140669167E-38  0.1947793773E-41 -0.6633970325E-40
46  0.4035130324E-39  0.2064656156E-38  0.1778385055E-38  0.5805951509E-39  0.8645846488E-39 -0.7725508483E-40  0.2327403104E-32  0.8358771553E-33  0.1204689587E-32 -0.1395668735E-32 -0.2336751263E-33  0.0000000000E+00  0.4190289954E-33 -0.3677304511E-34  0.2437193166E-32  0.2327402971E-32  0.8358782902E-33  0.1327993053E-39 -0.1134889666E-38  0.1204689616E-32 -0.1395668474E-32 -0.2336756923E-33 -0.2884693447E-40 -0.2610337609E-39  0.5659734432E-39  0.4190301361E-33 -0.3677304707E-34  0.2437193232E-32 -0.1140708499E-38  0.1954308647E-41 -0.6628973686E-40
47  0.2080316176E-39  0.1674803895E-38  0.1599079824E-38  0.4520904781E-39  0.8042439184E-39  0.5540973285E-39  0.2327321237E-32  0.8358331423E-33  0.1204645575E-32 -0.1395621466E-32 -0.2336588423E-33  0.0000000000E+00  0.4189998670E-33 -0.3677047391E-34  0.2437104900E-32  0.2327321104E-32  0.8358342772E-33  0.1328539254E-39 -0.1134950606E-38  0.1204645604E-32 -0.1395621205E-32 -0.2336594083E-33 -0.2882861222E-40 -0.2610592442E-39  0.5660130390E-39  0.4190010078E-33 -0.3677047587E-34  0.2437104966E-32 -0.1140777998E-38  0.1959227580E-41 -0.6624652874E-40
48  0.5445855605E-40  0.1338974850E-38  0.1461237783E-38  0.3527486279E-39  0.7197887048E-39  0.8315460342E-39  0.2327321077E-32  0.8358068619E-33  0.1204642141E-32 -0.1395616707E-32 -0.2336445143E-33  0.0000000000E+00  0.4189740138E-33 -0.3676845490E-34  0.2437100179E-32  0.2327320944E-32  0.8358079970E-33  0.1329087532E-39 -0.1135035306E-38  0.1204642170E-32 -0.1395616445E-32 -0.2336450804E-33 -0.2881221599E-40 -0.2610857469E-39  0.5660616723E-39  0.4189751547E-33 -0.3676845686E-34  0.2437100245E-32 -0.1140870932E-38  0.1963012548E-41 -0.6620724178E-40
49 -0.3484618995E-40  0.1047512871E-38  0.1344805419E-38  0.2573803554E-39  0.6023495448E-39  0.8519318537E-39  0.2327385092E-32  0.8357910808E-33  0.1204670551E-32 -0.1395649985E-32 -0.2336298488E-33  0.0000000000E+00  0.4189473564E-33 -0.3676656941E-34  0.2437160481E-32  0.2327384959E-32  0.8357922160E-33  0.1329594489E-39 -0.1135122765E-38  0.1204670580E-32 -0.1395649724E-32 -0.2336304150E-33 -0.2879787579E-40 -0.2611116641E-39  0.5661094891E-39  0.4189484974E-33 -0.3676657137E-34  0.2437160547E-32 -0.1140965866E-38  0.1965939965E-41 -0.6617250352E-40
50 -0.6168222789E-40  0.8149080975E-39  0.1241620341E-38  0.1653104963E-39  0.4771067634E-39  0.7175663272E-39  0.2327478727E-32  0.8357770222E-33  0.1204713455E-32 -0.1395703921E-32 -0.2336133347E-33  0.0000000000E+00  0.4189172518E-33 -0.3676450476E-34  0.2437250252E-32  0.2327478594E-32  0.8357781574E-33  0.1330035704E-39 -0.1135201389E-38  0.1204713484E-32 -0.1395703660E-32 -0.2336139009E-33 -0.2878570027E-40 -0.2611348802E-39  0.5661512441E-39  0.4189183929E-33 -0.3676450673E-34  0.2437250318E-32 -0.1141050957E-38  0.1968242026E-41 -0.6614270526E-40
51 -0.4504340829E-40  0.6406550347E-39  0.1137862632E-38  0.8002706139E-40  0.3602761069E-39  0.5223847686E-39  0.2327575204E-32  0.8357589882E-33  0.1204757440E-32 -0.1395763244E-32 -0.2335944064E-33  0.0000000000E+00  0.4188827387E-33 -0.3676211384E-34  0.2437342132E-32  0.2327575071E-32  0.8357601235E-33  0.1330399277E-39 -0.1135263347E-38  0.1204757469E-32 -0.1395762982E-32 -0.2335949726E-33 -0.2877555479E-40 -0.2611539821E-39  0.5661835100E-39  0.4188838798E-33 -0.3676211581E-34  0.2437342198E-32 -0.1141118287E-38  0.1970078241E-41 -0.6611765922E-40
52 -0.8848788252E-41  0.5185136046E-39  0.1025430282E-38  0.8327480154E-41  0.2623376778E-39  0.3273707961E-39  0.2327656339E-32  0.8357339504E-33  0.1204793442E-32 -0.1395815985E-32 -0.2335731426E-33  0.0000000000E+00  0.4188439924E-33 -0.3675937077E-34  0.2437417686E-32  0.2327656206E-32  0.8357350858E-33  0.1330682019E-39 -0.1135304450E-38  0.1204793471E-32 -0.1395815724E-32 -0.2335737088E-33 -0.2876722960E-40 -0.2611681780E-39  0.5662045915E-39  0.4188451336E-33 -0.3675937275E-34  0.2437417752E-32 -0.1141163675E-38  0.1971555262E-41 -0.6609695191E-40