# vtk DataFile Version 3.0
vtk output
ASCII
DATASET UNSTRUCTURED_GRID
POINTS 242 float
1.000000e+00 0.000000e+00 0.000000e+00
1.500000e+00 0.000000e+00 0.000000e+00
1.000000e+00 5.000000e-01 0.000000e+00
1.500000e+00 5.000000e-01 0.000000e+00
1.000000e+00 0.000000e+00 1.000000e-01
1.500000e+00 0.000000e+00 1.000000e-01
1.000000e+00 5.000000e-01 1.000000e-01
1.500000e+00 5.000000e-01 1.000000e-01
2.000000e+00 0.000000e+00 0.000000e+00
2.000000e+00 5.000000e-01 0.000000e+00
2.000000e+00 0.000000e+00 1.000000e-01
2.000000e+00 5.000000e-01 1.000000e-01
2.500000e+00 0.000000e+00 0.000000e+00
2.500000e+00 5.000000e-01 0.000000e+00
2.500000e+00 0.000000e+00 1.000000e-01
2.500000e+00 5.000000e-01 1.000000e-01
3.000000e+00 0.000000e+00 0.000000e+00
3.000000e+00 5.000000e-01 0.000000e+00
3.000000e+00 0.000000e+00 1.000000e-01
3.000000e+00 5.000000e-01 1.000000e-01
3.500000e+00 0.000000e+00 0.000000e+00
3.500000e+00 5.000000e-01 0.000000e+00
3.500000e+00 0.000000e+00 1.000000e-01
3.500000e+00 5.000000e-01 1.000000e-01
4.000000e+00 0.000000e+00 0.000000e+00
4.000000e+00 5.000000e-01 0.000000e+00
4.000000e+00 0.000000e+00 1.000000e-01
4.000000e+00 5.000000e-01 1.000000e-01
4.500000e+00 0.000000e+00 0.000000e+00
4.500000e+00 5.000000e-01 0.000000e+00
4.500000e+00 0.000000e+00 1.000000e-01
4.500000e+00 5.000000e-01 1.000000e-01
5.000000e+00 0.000000e+00 0.000000e+00
5.000000e+00 5.000000e-01 0.000000e+00
5.000000e+00 0.000000e+00 1.000000e-01
5.000000e+00 5.000000e-01 1.000000e-01
5.500000e+00 0.000000e+00 0.000000e+00
5.500000e+00 5.000000e-01 0.000000e+00
5.500000e+00 0.000000e+00 1.000000e-01
5.500000e+00 5.000000e-01 1.000000e-01
6.000000e+00 0.000000e+00 0.000000e+00
6.000000e+00 5.000000e-01 0.000000e+00
6.000000e+00 0.000000e+00 1.000000e-01
6.000000e+00 5.000000e-01 1.000000e-01
1.000000e+00 1.000000e+00 0.000000e+00
1.500000e+00 1.000000e+00 0.000000e+00
1.000000e+00 1.000000e+00 1.000000e-01
1.500000e+00 1.000000e+00 1.000000e-01
2.000000e+00 1.000000e+00 0.000000e+00
2.000000e+00 1.000000e+00 1.000000e-01
2.500000e+00 1.000000e+00 0.000000e+00
2.500000e+00 1.000000e+00 1.000000e-01
3.000000e+00 1.000000e+00 0.000000e+00
3.000000e+00 1.000000e+00 1.000000e-01
3.500000e+00 1.000000e+00 0.000000e+00
3.500000e+00 1.000000e+00 1.000000e-01
4.000000e+00 1.000000e+00 0.000000e+00
4.000000e+00 1.000000e+00 1.000000e-01
4.500000e+00 1.000000e+00 0.000000e+00
4.500000e+00 1.000000e+00 1.000000e-01
5.000000e+00 1.000000e+00 0.000000e+00
5.000000e+00 1.000000e+00 1.000000e-01
5.500000e+00 1.000000e+00 0.000000e+00
5.500000e+00 1.000000e+00 1.000000e-01
6.000000e+00 1.000000e+00 0.000000e+00
6.000000e+00 1.000000e+00 1.000000e-01
1.000000e+00 1.500000e+00 0.000000e+00
1.500000e+00 1.500000e+00 0.000000e+00
1.000000e+00 1.500000e+00 1.000000e-01
1.500000e+00 1.500000e+00 1.000000e-01
2.000000e+00 1.500000e+00 0.000000e+00
2.000000e+00 1.500000e+00 1.000000e-01
2.500000e+00 1.500000e+00 0.000000e+00
2.500000e+00 1.500000e+00 1.000000e-01
3.000000e+00 1.500000e+00 0.000000e+00
3.000000e+00 1.500000e+00 1.000000e-01
3.500000e+00 1.500000e+00 0.000000e+00
3.500000e+00 1.500000e+00 1.000000e-01
4.000000e+00 1.500000e+00 0.000000e+00
4.000000e+00 1.500000e+00 1.000000e-01
4.500000e+00 1.500000e+00 0.000000e+00
4.500000e+00 1.500000e+00 1.000000e-01
5.000000e+00 1.500000e+00 0.000000e+00
5.000000e+00 1.500000e+00 1.000000e-01
5.500000e+00 1.500000e+00 0.000000e+00
5.500000e+00 1.500000e+00 1.000000e-01
6.000000e+00 1.500000e+00 0.000000e+00
6.000000e+00 1.500000e+00 1.000000e-01
1.000000e+00 2.000000e+00 0.000000e+00
1.500000e+00 2.000000e+00 0.000000e+00
1.000000e+00 2.000000e+00 1.000000e-01
1.500000e+00 2.000000e+00 1.000000e-01
2.000000e+00 2.000000e+00 0.000000e+00
2.000000e+00 2.000000e+00 1.000000e-01
2.500000e+00 2.000000e+00 0.000000e+00
2.500000e+00 2.000000e+00 1.000000e-01
3.000000e+00 2.000000e+00 0.000000e+00
3.000000e+00 2.000000e+00 1.000000e-01
3.500000e+00 2.000000e+00 0.000000e+00
3.500000e+00 2.000000e+00 1.000000e-01
4.000000e+00 2.000000e+00 0.000000e+00
4.000000e+00 2.000000e+00 1.000000e-01
4.500000e+00 2.000000e+00 0.000000e+00
4.500000e+00 2.000000e+00 1.000000e-01
5.000000e+00 2.000000e+00 0.000000e+00
5.000000e+00 2.000000e+00 1.000000e-01
5.500000e+00 2.000000e+00 0.000000e+00
5.500000e+00 2.000000e+00 1.000000e-01
6.000000e+00 2.000000e+00 0.000000e+00
6.000000e+00 2.000000e+00 1.000000e-01
1.000000e+00 2.500000e+00 0.000000e+00
1.500000e+00 2.500000e+00 0.000000e+00
1.000000e+00 2.500000e+00 1.000000e-01
1.500000e+00 2.500000e+00 1.000000e-01
2.000000e+00 2.500000e+00 0.000000e+00
2.000000e+00 2.500000e+00 1.000000e-01
2.500000e+00 2.500000e+00 0.000000e+00
2.500000e+00 2.500000e+00 1.000000e-01
3.000000e+00 2.500000e+00 0.000000e+00
3.000000e+00 2.500000e+00 1.000000e-01
3.500000e+00 2.500000e+00 0.000000e+00
3.500000e+00 2.500000e+00 1.000000e-01
4.000000e+00 2.500000e+00 0.000000e+00
4.000000e+00 2.500000e+00 1.000000e-01
4.500000e+00 2.500000e+00 0.000000e+00
4.500000e+00 2.500000e+00 1.000000e-01
5.000000e+00 2.500000e+00 0.000000e+00
5.000000e+00 2.500000e+00 1.000000e-01
5.500000e+00 2.500000e+00 0.000000e+00
5.500000e+00 2.500000e+00 1.000000e-01
6.000000e+00 2.500000e+00 0.000000e+00
6.000000e+00 2.500000e+00 1.000000e-01
1.000000e+00 3.000000e+00 0.000000e+00
1.500000e+00 3.000000e+00 0.000000e+00
1.000000e+00 3.000000e+00 1.000000e-01
1.500000e+00 3.000000e+00 1.000000e-01
2.000000e+00 3.000000e+00 0.000000e+00
2.000000e+00 3.000000e+00 1.000000e-01
2.500000e+00 3.000000e+00 0.000000e+00
2.500000e+00 3.000000e+00 1.000000e-01
3.000000e+00 3.000000e+00 0.000000e+00
3.000000e+00 3.000000e+00 1.000000e-01
3.500000e+00 3.000000e+00 0.000000e+00
3.500000e+00 3.000000e+00 1.000000e-01
4.000000e+00 3.000000e+00 0.000000e+00
4.000000e+00 3.000000e+00 1.000000e-01
4.500000e+00 3.000000e+00 0.000000e+00
4.500000e+00 3.000000e+00 1.000000e-01
5.000000e+00 3.000000e+00 0.000000e+00
5.000000e+00 3.000000e+00 1.000000e-01
5.500000e+00 3.000000e+00 0.000000e+00
5.500000e+00 3.000000e+00 1.000000e-01
6.000000e+00 3.000000e+00 0.000000e+00
6.000000e+00 3.000000e+00 1.000000e-01
1.000000e+00 3.500000e+00 0.000000e+00
1.500000e+00 3.500000e+00 0.000000e+00
1.000000e+00 3.500000e+00 1.000000e-01
1.500000e+00 3.500000e+00 1.000000e-01
2.000000e+00 3.500000e+00 0.000000e+00
2.000000e+00 3.500000e+00 1.000000e-01
2.500000e+00 3.500000e+00 0.000000e+00
2.500000e+00 3.500000e+00 1.000000e-01
3.000000e+00 3.500000e+00 0.000000e+00
3.000000e+00 3.500000e+00 1.000000e-01
3.500000e+00 3.500000e+00 0.000000e+00
3.500000e+00 3.500000e+00 1.000000e-01
4.000000e+00 3.500000e+00 0.000000e+00
4.000000e+00 3.500000e+00 1.000000e-01
4.500000e+00 3.500000e+00 0.000000e+00
4.500000e+00 3.500000e+00 1.000000e-01
5.000000e+00 3.500000e+00 0.000000e+00
5.000000e+00 3.500000e+00 1.000000e-01
5.500000e+00 3.500000e+00 0.000000e+00
5.500000e+00 3.500000e+00 1.000000e-01
6.000000e+00 3.500000e+00 0.000000e+00
6.000000e+00 3.500000e+00 1.000000e-01
1.000000e+00 4.000000e+00 0.000000e+00
1.500000e+00 4.000000e+00 0.000000e+00
1.000000e+00 4.000000e+00 1.000000e-01
1.500000e+00 4.000000e+00 1.000000e-01
2.000000e+00 4.000000e+00 0.000000e+00
2.000000e+00 4.000000e+00 1.000000e-01
2.500000e+00 4.000000e+00 0.000000e+00
2.500000e+00 4.000000e+00 1.000000e-01
3.000000e+00 4.000000e+00 0.000000e+00
3.000000e+00 4.000000e+00 1.000000e-01
3.500000e+00 4.000000e+00 0.000000e+00
3.500000e+00 4.000000e+00 1.000000e-01
4.000000e+00 4.000000e+00 0.000000e+00
4.000000e+00 4.000000e+00 1.000000e-01
4.500000e+00 4.000000e+00 0.000000e+00
4.500000e+00 4.000000e+00 1.000000e-01
5.000000e+00 4.000000e+00 0.000000e+00
5.000000e+00 4.000000e+00 1.000000e-01
5.500000e+00 4.000000e+00 0.000000e+00
5.500000e+00 4.000000e+00 1.000000e-01
6.000000e+00 4.000000e+00 0.000000e+00
6.000000e+00 4.000000e+00 1.000000e-01
1.000000e+00 4.500000e+00 0.000000e+00
1.500000e+00 4.500000e+00 0.000000e+00
1.000000e+00 4.500000e+00 1.000000e-01
1.500000e+00 4.500000e+00 1.000000e-01
2.000000e+00 4.500000e+00 0.000000e+00
2.000000e+00 4.500000e+00 1.000000e-01
2.500000e+00 4.500000e+00 0.000000e+00
2.500000e+00 4.500000e+00 1.000000e-01
3.000000e+00 4.500000e+00 0.000000e+00
3.000000e+00 4.500000e+00 1.000000e-01
3.500000e+00 4.500000e+00 0.000000e+00
3.500000e+00 4.500000e+00 1.000000e-01
4.000000e+00 4.500000e+00 0.000000e+00
4.000000e+00 4.500000e+00 1.000000e-01
4.500000e+00 4.500000e+00 0.000000e+00
4.500000e+00 4.500000e+00 1.000000e-01
5.000000e+00 4.500000e+00 0.000000e+00
5.000000e+00 4.500000e+00 1.000000e-01
5.500000e+00 4.500000e+00 0.000000e+00
5.500000e+00 4.500000e+00 1.000000e-01
6.000000e+00 4.500000e+00 0.000000e+00
6.000000e+00 4.500000e+00 1.000000e-01
1.000000e+00 5.000000e+00 0.000000e+00
1.500000e+00 5.000000e+00 0.000000e+00
1.000000e+00 5.000000e+00 1.000000e-01
1.500000e+00 5.000000e+00 1.000000e-01
2.000000e+00 5.000000e+00 0.000000e+00
2.000000e+00 5.000000e+00 1.000000e-01
2.500000e+00 5.000000e+00 0.000000e+00
2.500000e+00 5.000000e+00 1.000000e-01
3.000000e+00 5.000000e+00 0.000000e+00
3.000000e+00 5.000000e+00 1.000000e-01
3.500000e+00 5.000000e+00 0.000000e+00
3.500000e+00 5.000000e+00 1.000000e-01
4.000000e+00 5.000000e+00 0.000000e+00
4.000000e+00 5.000000e+00 1.000000e-01
4.500000e+00 5.000000e+00 0.000000e+00
4.500000e+00 5.000000e+00 1.000000e-01
5.000000e+00 5.000000e+00 0.000000e+00
5.000000e+00 5.000000e+00 1.000000e-01
5.500000e+00 5.000000e+00 0.000000e+00
5.500000e+00 5.000000e+00 1.000000e-01
6.000000e+00 5.000000e+00 0.000000e+00
6.000000e+00 5.000000e+00 1.000000e-01

CELLS 100 900
8 0 1 3 2 4 5 7 6 
8 1 8 9 3 5 10 11 7 
8 8 12 13 9 10 14 15 11 
8 12 16 17 13 14 18 19 15 
8 16 20 21 17 18 22 23 19 
8 20 24 25 21 22 26 27 23 
8 24 28 29 25 26 30 31 27 
8 28 32 33 29 30 34 35 31 
8 32 36 37 33 34 38 39 35 
8 36 40 41 37 38 42 43 39 
8 2 3 45 44 6 7 47 46 
8 3 9 48 45 7 11 49 47 
8 9 13 50 48 11 15 51 49 
8 13 17 52 50 15 19 53 51 
8 17 21 54 52 19 23 55 53 
8 21 25 56 54 23 27 57 55 
8 25 29 58 56 27 31 59 57 
8 29 33 60 58 31 35 61 59 
8 33 37 62 60 35 39 63 61 
8 37 41 64 62 39 43 65 63 
8 44 45 67 66 46 47 69 68 
8 45 48 70 67 47 49 71 69 
8 48 50 72 70 49 51 73 71 
8 50 52 74 72 51 53 75 73 
8 52 54 76 74 53 55 77 75 
8 54 56 78 76 55 57 79 77 
8 56 58 80 78 57 59 81 79 
8 58 60 82 80 59 61 83 81 
8 60 62 84 82 61 63 85 83 
8 62 64 86 84 63 65 87 85 
8 66 67 89 88 68 69 91 90 
8 67 70 92 89 69 71 93 91 
8 70 72 94 92 71 73 95 93 
8 72 74 96 94 73 75 97 95 
8 74 76 98 96 75 77 99 97 
8 76 78 100 98 77 79 101 99 
8 78 80 102 100 79 81 103 101 
8 80 82 104 102 81 83 105 103 
8 82 84 106 104 83 85 107 105 
8 84 86 108 106 85 87 109 107 
8 88 89 111 110 90 91 113 112 
8 89 92 114 111 91 93 115 113 
8 92 94 116 114 93 95 117 115 
8 94 96 118 116 95 97 119 117 
8 96 98 120 118 97 99 121 119 
8 98 100 122 120 99 101 123 121 
8 100 102 124 122 101 103 125 123 
8 102 104 126 124 103 105 127 125 
8 104 106 128 126 105 107 129 127 
8 106 108 130 128 107 109 131 129 
8 110 111 133 132 112 113 135 134 
8 111 114 136 133 113 115 137 135 
8 114 116 138 136 115 117 139 137 
8 116 118 140 138 117 119 141 139 
8 118 120 142 140 119 121 143 141 
8 120 122 144 142 121 123 145 143 
8 122 124 146 144 123 125 147 145 
8 124 126 148 146 125 127 149 147 
8 126 128 150 148 127 129 151 149 
8 128 130 152 150 129 131 153 151 
8 132 133 155 154 134 135 157 156 
8 133 136 158 155 135 137 159 157 
8 136 138 160 158 137 139 161 159 
8 138 140 162 160 139 141 163 161 
8 140 142 164 162 141 143 165 163 
8 142 144 166 164 143 145 167 165 
8 144 146 168 166 145 147 169 167 
8 146 148 170 168 147 149 171 169 
8 148 150 172 170 149 151 173 171 
8 150 152 174 172 151 153 175 173 
8 154 155 177 176 156 157 179 178 
8 155 158 180 177 157 159 181 179 
8 158 160 182 180 159 161 183 181 
8 160 162 184 182 161 163 185 183 
8 162 164 186 184 163 165 187 185 
8 164 166 188 186 165 167 189 187 
8 166 168 190 188 167 169 191 189 
8 168 170 192 190 169 171 193 191 
8 170 172 194 192 171 173 195 193 
8 172 174 196 194 173 175 197 195 
8 176 177 199 198 178 179 201 200 
8 177 180 202 199 179 181 203 201 
8 180 182 204 202 181 183 205 203 
8 182 184 206 204 183 185 207 205 
8 184 186 208 206 185 187 209 207 
8 186 188 210 208 187 189 211 209 
8 188 190 212 210 189 191 213 211 
8 190 192 214 212 191 193 215 213 
8 192 194 216 214 193 195 217 215 
8 194 196 218 216 195 197 219 217 
8 198 199 221 220 200 201 223 222 
8 199 202 224 221 201 203 225 223 
8 202 204 226 224 203 205 227 225 
8 204 206 228 226 205 207 229 227 
8 206 208 230 228 207 209 231 229 
8 208 210 232 230 209 211 233 231 
8 210 212 234 232 211 213 235 233 
8 212 214 236 234 213 215 237 235 
8 214 216 238 236 215 217 239 237 
8 216 218 240 238 217 219 241 239 

CELL_TYPES 100
12
12
12
12
12
12
12
12
12
12
12
12
12
12
12
12
12
12
12
12
12
12
12
12
12
12
12
12
12
12
12
12
12
12
12
12
12
12
12
12
12
12
12
12
12
12
12
12
12
12
12
12
12
12
12
12
12
12
12
12
12
12
12
12
12
12
12
12
12
12
12
12
12
12
12
12
12
12
12
12
12
12
12
12
12
12
12
12
12
12
12
12
12
12
12
12
12
12
12
12
POINT_DATA 242
SCALARS u float 1
LOOKUP_TABLE default
3.000e+02
3.000e+02
3.000e+02
3.000e+02
3.000e+02
3.000e+02
3.000e+02
3.000e+02
3.000e+02
3.000e+02
3.000e+02
3.000e+02
3.000e+02
3.000e+02
3.000e+02
3.000e+02
3.000e+02
3.000e+02
3.000e+02
3.000e+02
3.000e+02
3.000e+02
3.000e+02
3.000e+02
3.000e+02
3.000e+02
3.000e+02
3.000e+02
3.000e+02
3.000e+02
3.000e+02
3.000e+02
3.000e+02
3.000e+02
3.000e+02
3.000e+02
3.000e+02
3.000e+02
3.000e+02
3.000e+02
3.000e+02
3.000e+02
3.000e+02
3.000e+02
3.000e+02
3.000e+02
3.000e+02
3.000e+02
3.000e+02
3.000e+02
3.000e+02
3.000e+02
3.000e+02
3.000e+02
3.000e+02
3.000e+02
3.000e+02
3.000e+02
3.000e+02
3.000e+02
3.000e+02
3.000e+02
3.000e+02
3.000e+02
3.000e+02
3.000e+02
3.000e+02
3.000e+02
3.000e+02
3.000e+02
3.000e+02
3.000e+02
3.000e+02
3.000e+02
3.000e+02
3.000e+02
3.000e+02
3.000e+02
3.000e+02
3.000e+02
3.000e+02
3.000e+02
3.000e+02
3.000e+02
3.000e+02
3.000e+02
3.000e+02
3.000e+02
3.000e+02
3.000e+02
3.000e+02
3.000e+02
3.000e+02
3.000e+02
3.000e+02
3.000e+02
3.000e+02
3.000e+02
3.000e+02
3.000e+02
3.000e+02
3.000e+02
3.000e+02
3.000e+02
3.000e+02
3.000e+02
3.000e+02
3.000e+02
3.000e+02
3.000e+02
3.000e+02
3.000e+02
3.000e+02
3.000e+02
3.000e+02
3.000e+02
3.000e+02
3.000e+02
3.000e+02
3.000e+02
3.000e+02
3.000e+02
3.000e+02
3.000e+02
3.000e+02
3.000e+02
3.000e+02
3.000e+02
3.000e+02
3.000e+02
3.001e+02
3.001e+02
2.999e+02
3.000e+02
2.999e+02
3.000e+02
3.000e+02
3.000e+02
3.000e+02
3.000e+02
3.000e+02
3.000e+02
3.000e+02
3.000e+02
3.000e+02
3.000e+02
3.000e+02
3.000e+02
3.000e+02
3.000e+02
3.000e+02
3.000e+02
3.001e+02
3.001e+02
2.999e+02
2.999e+02
2.999e+02
2.999e+02
2.999e+02
2.999e+02
3.000e+02
3.000e+02
3.000e+02
3.000e+02
3.000e+02
3.000e+02
3.000e+02
3.000e+02
3.000e+02
3.000e+02
3.000e+02
3.000e+02
3.001e+02
3.001e+02
3.001e+02
3.001e+02
2.999e+02
2.999e+02
2.999e+02
2.999e+02
2.999e+02
2.999e+02
2.999e+02
2.999e+02
3.000e+02
3.000e+02
3.000e+02
3.000e+02
3.000e+02
3.000e+02
3.000e+02
3.000e+02
3.000e+02
3.000e+02
3.001e+02
3.001e+02
3.001e+02
3.001e+02
2.999e+02
2.999e+02
2.999e+02
2.999e+02
2.999e+02
2.999e+02
2.999e+02
2.999e+02
2.999e+02
2.999e+02
3.000e+02
3.000e+02
3.000e+02
3.000e+02
3.000e+02
3.000e+02
3.001e+02
3.001e+02
3.001e+02
3.001e+02
3.001e+02
3.001e+02
2.999e+02
2.999e+02
2.999e+02
2.999e+02
2.999e+02
2.999e+02
2.999e+02
2.999e+02
2.999e+02
2.999e+02
2.999e+02
2.999e+02
3.000e+02
3.000e+02
3.000e+02
3.000e+02
3.001e+02
3.001e+02
3.001e+02
3.001e+02
3.001e+02
3.001e+02
SCALARS v float 1
LOOKUP_TABLE default
3.000e+02
3.000e+02
3.000e+02
3.000e+02
3.000e+02
3.000e+02
3.000e+02
3.000e+02
3.000e+02
3.000e+02
3.000e+02
3.000e+02
3.000e+02
3.000e+02
3.000e+02
3.000e+02
3.000e+02
3.000e+02
3.000e+02
3.000e+02
3.000e+02
3.000e+02
3.000e+02
3.000e+02
3.000e+02
3.000e+02
3.000e+02
3.000e+02
3.000e+02
3.000e+02
3.000e+02
3.000e+02
3.000e+02
3.000e+02
3.000e+02
3.000e+02
3.000e+02
3.000e+02
3.000e+02
3.000e+02
3.000e+02
3.000e+02
3.000e+02
3.000e+02
3.000e+02
3.000e+02
3.000e+02
3.000e+02
3.000e+02
3.000e+02
3.000e+02
3.000e+02
3.000e+02
3.000e+02
3.000e+02
3.000e+02
3.000e+02
3.000e+02
3.000e+02
3.000e+02
3.000e+02
3.000e+02
3.000e+02
3.000e+02
3.000e+02
3.000e+02
3.000e+02
3.000e+02
3.000e+02
3.000e+02
3.000e+02
3.000e+02
3.000e+02
3.000e+02
3.000e+02
3.000e+02
3.000e+02
3.000e+02
3.000e+02
3.000e+02
3.000e+02
3.000e+02
3.000e+02
3.000e+02
3.000e+02
3.000e+02
3.000e+02
3.000e+02
3.000e+02
3.000e+02
3.000e+02
3.000e+02
3.000e+02
3.000e+02
3.000e+02
3.000e+02
3.000e+02
3.000e+02
3.000e+02
3.000e+02
3.000e+02
3.000e+02
3.000e+02
3.000e+02
3.000e+02
3.000e+02
3.000e+02
3.000e+02
3.000e+02
3.000e+02
3.000e+02
3.000e+02
3.000e+02
3.000e+02
3.000e+02
3.000e+02
3.000e+02
3.000e+02
3.000e+02
3.000e+02
3.000e+02
3.000e+02
3.000e+02
3.000e+02
3.000e+02
3.000e+02
3.000e+02
3.000e+02
3.000e+02
3.000e+02
3.000e+02
3.000e+02
3.000e+02
3.000e+02
3.000e+02
3.000e+02
3.000e+02
3.000e+02
3.000e+02
3.000e+02
3.001e+02
3.001e+02
3.001e+02
3.001e+02
3.001e+02
3.001e+02
3.001e+02
3.001e+02
3.001e+02
3.001e+02
3.000e+02
3.000e+02
3.000e+02
3.000e+02
3.000e+02
3.000e+02
3.000e+02
3.000e+02
3.000e+02
3.000e+02
3.001e+02
3.001e+02
3.001e+02
3.001e+02
3.001e+02
3.001e+02
3.001e+02
3.001e+02
3.001e+02
3.001e+02
3.001e+02
3.001e+02
3.001e+02
3.001e+02
3.001e+02
3.001e+02
3.000e+02
3.000e+02
3.000e+02
3.000e+02
3.000e+02
3.000e+02
3.001e+02
3.001e+02
3.001e+02
3.001e+02
3.001e+02
3.001e+02
3.001e+02
3.001e+02
3.001e+02
3.001e+02
3.001e+02
3.001e+02
3.001e+02
3.001e+02
3.001e+02
3.001e+02
3.000e+02
3.000e+02
3.000e+02
3.000e+02
3.001e+02
3.001e+02
3.001e+02
3.001e+02
3.001e+02
3.001e+02
3.001e+02
3.001e+02
3.001e+02
3.001e+02
3.001e+02
3.001e+02
3.001e+02
3.001e+02
3.001e+02
3.001e+02
3.001e+02
3.001e+02
3.000e+02
3.001e+02
3.000e+02
3.001e+02
3.001e+02
3.001e+02
3.001e+02
3.001e+02
3.001e+02
3.001e+02
3.001e+02
3.001e+02
3.002e+02
3.002e+02
3.002e+02
3.002e+02
3.002e+02
3.002e+02
3.001e+02
3.001e+02
3.001e+02
3.001e+02
SCALARS w float 1
LOOKUP_TABLE default
3.000e+02
3.000e+02
3.000e+02
3.000e+02
3.000e+02
3.000e+02
3.000e+02
3.000e+02
3.000e+02
3.000e+02
3.000e+02
3.000e+02
3.000e+02
3.000e+02
3.000e+02
3.000e+02
3.000e+02
3.000e+02
3.000e+02
3.000e+02
3.000e+02
3.000e+02
3.000e+02
3.000e+02
3.000e+02
3.000e+02
3.000e+02
3.000e+02
3.000e+02
3.000e+02
3.000e+02
3.000e+02
3.000e+02
3.000e+02
3.000e+02
3.000e+02
3.000e+02
3.000e+02
3.000e+02
3.000e+02
3.000e+02
3.000e+02
3.000e+02
3.000e+02
3.000e+02
3.000e+02
3.000e+02
3.000e+02
3.000e+02
3.000e+02
3.000e+02
3.000e+02
3.000e+02
3.000e+02
3.000e+02
3.000e+02
3.000e+02
3.000e+02
3.000e+02
3.000e+02
3.000e+02
3.000e+02
3.000e+02
3.000e+02
3.000e+02
3.000e+02
3.000e+02
3.000e+02
3.000e+02
3.000e+02
3.000e+02
3.000e+02
3.000e+02
3.000e+02
3.000e+02
3.000e+02
3.000e+02
3.000e+02
3.000e+02
3.000e+02
3.000e+02
3.000e+02
3.000e+02
3.000e+02
3.000e+02
3.000e+02
3.000e+02
3.000e+02
3.000e+02
3.000e+02
3.000e+02
3.000e+02
3.000e+02
3.000e+02
3.000e+02
3.000e+02
3.000e+02
3.000e+02
3.000e+02
3.000e+02
3.000e+02
3.000e+02
3.000e+02
3.000e+02
3.000e+02
3.000e+02
3.000e+02
3.000e+02
3.000e+02
3.000e+02
3.000e+02
3.000e+02
3.000e+02
3.000e+02
3.000e+02
3.000e+02
3.000e+02
3.000e+02
3.000e+02
3.000e+02
3.000e+02
3.000e+02
3.000e+02
3.000e+02
3.000e+02
3.000e+02
3.000e+02
3.000e+02
3.000e+02
3.000e+02
3.000e+02
3.000e+02
3.000e+02
3.000e+02
3.000e+02
3.000e+02
3.000e+02
3.000e+02
3.000e+02
3.000e+02
3.000e+02
3.000e+02
3.000e+02
3.000e+02
3.000e+02
3.000e+02
3.000e+02
3.000e+02
3.000e+02
3.000e+02
3.000e+02
3.000e+02
3.000e+02
3.000e+02
3.000e+02
3.000e+02
3.000e+02
3.000e+02
3.000e+02
3.000e+02
3.000e+02
3.000e+02
3.000e+02
3.000e+02
3.000e+02
3.000e+02
3.000e+02
3.000e+02
3.000e+02
3.000e+02
3.000e+02
3.000e+02
3.000e+02
3.000e+02
3.000e+02
3.000e+02
3.000e+02
3.000e+02
3.000e+02
3.000e+02
3.000e+02
3.000e+02
3.000e+02
3.000e+02
3.000e+02
3.000e+02
3.000e+02
3.000e+02
3.000e+02
3.000e+02
3.000e+02
3.000e+02
3.000e+02
3.000e+02
3.000e+02
3.000e+02
3.000e+02
3.000e+02
3.000e+02
3.000e+02
3.000e+02
3.000e+02
3.000e+02
3.000e+02
3.000e+02
3.000e+02
3.000e+02
3.000e+02
3.000e+02
3.000e+02
3.000e+02
3.000e+02
3.000e+02
3.000e+02
3.000e+02
3.000e+02
3.000e+02
3.000e+02
3.000e+02
3.000e+02
3.000e+02
3.000e+02
3.000e+02
3.000e+02
3.000e+02
3.000e+02
3.000e+02
3.000e+02
3.000e+02
3.000e+02
3.000e+02
3.000e+02
3.000e+02
3.000e+02
3.000e+02
3.000e+02
3.000e+02
3.000e+02
3.000e+02
3.000e+02
3.000e+02
3.000e+02
SCALARS v3 float 1
LOOKUP_TABLE default
3.000e+02
3.000e+02
2.905e+02
3.005e+02
3.000e+02
3.000e+02
2.918e+02
3.007e+02
3.000e+02
3.228e+02
3.000e+02
3.227e+02
3.000e+02
3.466e+02
3.000e+02
3.467e+02
3.000e+02
3.679e+02
3.000e+02
3.679e+02
3.000e+02
3.878e+02
3.000e+02
3.878e+02
3.000e+02
4.061e+02
3.000e+02
4.060e+02
3.000e+02
4.214e+02
3.000e+02
4.214e+02
3.000e+02
4.327e+02
3.000e+02
4.327e+02
3.000e+02
4.395e+02
3.000e+02
4.395e+02
3.000e+02
4.418e+02
3.000e+02
4.418e+02
2.537e+02
2.889e+02
2.483e+02
2.880e+02
3.512e+02
3.514e+02
3.953e+02
3.951e+02
4.363e+02
4.363e+02
4.771e+02
4.769e+02
5.151e+02
5.152e+02
5.471e+02
5.471e+02
5.702e+02
5.702e+02
5.836e+02
5.836e+02
5.880e+02
5.880e+02
2.460e+02
3.248e+02
2.484e+02
3.221e+02
3.888e+02
3.896e+02
4.437e+02
4.442e+02
5.033e+02
5.034e+02
5.683e+02
5.687e+02
6.310e+02
6.309e+02
6.825e+02
6.825e+02
7.177e+02
7.177e+02
7.367e+02
7.367e+02
7.425e+02
7.425e+02
4.006e+02
4.002e+02
4.005e+02
3.997e+02
4.314e+02
4.310e+02
4.815e+02
4.790e+02
5.651e+02
5.649e+02
6.617e+02
6.600e+02
7.594e+02
7.598e+02
8.367e+02
8.366e+02
8.826e+02
8.826e+02
9.021e+02
9.021e+02
9.070e+02
9.070e+02
5.111e+02
5.000e+02
5.115e+02
4.991e+02
4.880e+02
4.858e+02
5.145e+02
5.197e+02
5.929e+02
5.949e+02
7.486e+02
7.548e+02
9.148e+02
9.134e+02
1.031e+03
1.032e+03
1.074e+03
1.074e+03
1.079e+03
1.079e+03
1.077e+03
1.077e+03
6.344e+02
6.286e+02
6.349e+02
6.276e+02
5.908e+02
5.957e+02
4.458e+02
4.280e+02
5.540e+02
5.455e+02
8.013e+02
7.777e+02
1.178e+03
1.183e+03
1.303e+03
1.301e+03
1.303e+03
1.302e+03
1.257e+03
1.257e+03
1.232e+03
1.233e+03
7.696e+02
7.710e+02
7.702e+02
7.699e+02
7.567e+02
7.606e+02
6.559e+02
6.407e+02
8.417e+02
8.246e+02
1.316e+03
1.325e+03
1.641e+03
1.641e+03
1.694e+03
1.696e+03
1.579e+03
1.582e+03
1.399e+03
1.399e+03
1.313e+03
1.310e+03
8.979e+02
9.146e+02
8.977e+02
9.149e+02
9.670e+02
9.660e+02
1.109e+03
1.113e+03
1.415e+03
1.420e+03
1.881e+03
1.879e+03
2.266e+03
2.282e+03
2.317e+03
2.305e+03
1.974e+03
1.962e+03
1.409e+03
1.409e+03
1.123e+03
1.137e+03
9.922e+02
1.025e+03
9.922e+02
1.025e+03
1.137e+03
1.137e+03
1.366e+03
1.366e+03
1.764e+03
1.759e+03
2.411e+03
2.429e+03
3.017e+03
2.970e+03
3.533e+03
3.575e+03
2.757e+03
2.803e+03
1.017e+03
1.015e+03
1.118e+02
5.758e+01
1.027e+03
1.067e+03
1.027e+03
1.067e+03
1.197e+03
1.197e+03
1.453e+03
1.451e+03
1.883e+03
1.893e+03
2.576e+03
2.537e+03
4.145e+03
4.285e+03
4.329e+03
4.395e+03
3.055e+03
3.103e+03
1.155e+02
7.362e+01
-1.718e+03
-1.714e+03
SCALARS exx float 1
LOOKUP_TABLE default
0.000e+00
0.000e+00
8.076e-03
6.037e-03
0.000e+00
0.000e+00
8.079e-03
6.039e-03
0.000e+00
3.276e-03
0.000e+00
3.277e-03
0.000e+00
2.361e-03
0.000e+00
2.362e-03
0.000e+00
2.220e-03
0.000e+00
2.220e-03
0.000e+00
2.522e-03
0.000e+00
2.522e-03
0.000e+00
3.159e-03
0.000e+00
3.159e-03
0.000e+00
4.058e-03
0.000e+00
4.057e-03
0.000e+00
5.566e-03
0.000e+00
5.566e-03
0.000e+00
9.105e-03
0.000e+00
9.107e-03
0.000e+00
1.165e-02
0.000e+00
1.165e-02
7.472e-03
7.071e-03
7.458e-03
7.067e-03
6.031e-03
6.036e-03
5.147e-03
5.149e-03
5.114e-03
5.114e-03
5.896e-03
5.894e-03
7.258e-03
7.256e-03
9.050e-03
9.048e-03
1.143e-02
1.142e-02
1.382e-02
1.382e-02
1.484e-02
1.484e-02
8.096e-03
8.134e-03
8.093e-03
8.129e-03
7.925e-03
7.924e-03
7.653e-03
7.655e-03
8.171e-03
8.171e-03
9.713e-03
9.712e-03
1.190e-02
1.189e-02
1.425e-02
1.425e-02
1.640e-02
1.640e-02
1.794e-02
1.794e-02
1.851e-02
1.851e-02
1.110e-02
1.061e-02
1.110e-02
1.060e-02
9.872e-03
9.866e-03
9.899e-03
9.896e-03
1.120e-02
1.120e-02
1.379e-02
1.379e-02
1.694e-02
1.694e-02
1.967e-02
1.966e-02
2.142e-02
2.142e-02
2.226e-02
2.226e-02
2.249e-02
2.249e-02
1.421e-02
1.359e-02
1.421e-02
1.359e-02
1.255e-02
1.254e-02
1.241e-02
1.240e-02
1.425e-02
1.424e-02
1.824e-02
1.823e-02
2.275e-02
2.275e-02
2.583e-02
2.583e-02
2.692e-02
2.693e-02
2.682e-02
2.682e-02
2.662e-02
2.662e-02
1.759e-02
1.729e-02
1.759e-02
1.730e-02
1.615e-02
1.616e-02
1.537e-02
1.535e-02
1.772e-02
1.769e-02
2.368e-02
2.368e-02
3.004e-02
3.007e-02
3.311e-02
3.314e-02
3.276e-02
3.277e-02
3.120e-02
3.121e-02
3.037e-02
3.037e-02
2.061e-02
2.054e-02
2.061e-02
2.055e-02
1.998e-02
1.998e-02
1.993e-02
1.988e-02
2.396e-02
2.392e-02
3.201e-02
3.203e-02
3.877e-02
3.881e-02
4.076e-02
4.079e-02
3.842e-02
3.845e-02
3.441e-02
3.442e-02
3.243e-02
3.243e-02
2.282e-02
2.287e-02
2.282e-02
2.286e-02
2.353e-02
2.351e-02
2.629e-02
2.626e-02
3.264e-02
3.261e-02
4.182e-02
4.183e-02
4.964e-02
4.970e-02
5.111e-02
5.119e-02
4.443e-02
4.450e-02
3.426e-02
3.431e-02
2.939e-02
2.944e-02
2.412e-02
2.437e-02
2.412e-02
2.436e-02
2.595e-02
2.594e-02
3.062e-02
3.059e-02
4.024e-02
4.021e-02
5.353e-02
5.351e-02
6.603e-02
6.605e-02
6.958e-02
6.976e-02
5.440e-02
5.459e-02
2.713e-02
2.710e-02
1.314e-02
1.296e-02
2.468e-02
2.464e-02
2.467e-02
2.464e-02
2.546e-02
2.545e-02
2.972e-02
2.972e-02
4.085e-02
4.078e-02
6.527e-02
6.521e-02
9.681e-02
9.695e-02
1.070e-01
1.072e-01
7.429e-02
7.436e-02
1.483e-02
1.480e-02
-1.654e-02
-1.661e-02
SCALARS eyy float 1
LOOKUP_TABLE default
-1.503e-03
7.798e-03
-9.077e-04
5.313e-03
-1.474e-03
7.813e-03
-8.899e-04
5.325e-03
1.132e-02
9.903e-03
1.132e-02
9.905e-03
1.395e-02
1.310e-02
1.394e-02
1.309e-02
1.560e-02
1.516e-02
1.559e-02
1.514e-02
1.638e-02
1.614e-02
1.636e-02
1.612e-02
1.634e-02
1.616e-02
1.631e-02
1.612e-02
1.550e-02
1.524e-02
1.545e-02
1.520e-02
1.360e-02
1.322e-02
1.355e-02
1.317e-02
1.016e-02
9.161e-03
1.009e-02
9.097e-03
-2.462e-03
1.318e-03
-2.540e-03
1.244e-03
2.859e-04
3.564e-03
2.936e-04
3.571e-03
8.759e-03
8.763e-03
1.274e-02
1.274e-02
1.537e-02
1.536e-02
1.666e-02
1.664e-02
1.678e-02
1.675e-02
1.590e-02
1.586e-02
1.395e-02
1.391e-02
1.053e-02
1.047e-02
8.822e-03
8.757e-03
1.214e-03
5.007e-03
1.231e-03
5.015e-03
9.549e-03
9.553e-03
1.372e-02
1.372e-02
1.664e-02
1.663e-02
1.808e-02
1.806e-02
1.831e-02
1.828e-02
1.775e-02
1.771e-02
1.654e-02
1.649e-02
1.511e-02
1.506e-02
1.478e-02
1.472e-02
2.427e-03
6.585e-03
2.449e-03
6.594e-03
1.069e-02
1.069e-02
1.485e-02
1.485e-02
1.785e-02
1.785e-02
1.951e-02
1.949e-02
1.996e-02
1.993e-02
2.008e-02
2.004e-02
1.986e-02
1.981e-02
1.957e-02
1.953e-02
1.933e-02
1.928e-02
4.196e-03
8.594e-03
4.216e-03
8.603e-03
1.201e-02
1.200e-02
1.544e-02
1.544e-02
1.843e-02
1.842e-02
2.074e-02
2.071e-02
2.255e-02
2.250e-02
2.358e-02
2.353e-02
2.392e-02
2.388e-02
2.416e-02
2.412e-02
2.412e-02
2.409e-02
6.847e-03
1.138e-02
6.863e-03
1.139e-02
1.412e-02
1.412e-02
1.630e-02
1.627e-02
1.998e-02
1.994e-02
2.433e-02
2.427e-02
2.816e-02
2.811e-02
2.928e-02
2.923e-02
2.898e-02
2.893e-02
2.873e-02
2.869e-02
2.892e-02
2.892e-02
1.134e-02
1.521e-02
1.135e-02
1.522e-02
1.803e-02
1.803e-02
2.102e-02
2.099e-02
2.666e-02
2.662e-02
3.404e-02
3.402e-02
3.918e-02
3.917e-02
3.910e-02
3.902e-02
3.590e-02
3.583e-02
3.249e-02
3.247e-02
3.157e-02
3.160e-02
1.701e-02
1.963e-02
1.701e-02
1.963e-02
2.316e-02
2.315e-02
2.860e-02
2.862e-02
3.664e-02
3.666e-02
4.741e-02
4.744e-02
5.545e-02
5.541e-02
5.708e-02
5.704e-02
4.730e-02
4.726e-02
3.248e-02
3.248e-02
2.413e-02
2.408e-02
2.180e-02
2.338e-02
2.180e-02
2.338e-02
2.740e-02
2.740e-02
3.414e-02
3.415e-02
4.374e-02
4.377e-02
5.780e-02
5.781e-02
7.530e-02
7.537e-02
8.045e-02
8.061e-02
6.085e-02
6.100e-02
2.297e-02
2.291e-02
-7.988e-04
-9.707e-04
2.365e-02
2.490e-02
2.365e-02
2.490e-02
2.901e-02
2.902e-02
3.589e-02
3.588e-02
4.596e-02
4.599e-02
6.142e-02
6.139e-02
8.595e-02
8.621e-02
9.205e-02
9.236e-02
6.709e-02
6.736e-02
1.500e-02
1.487e-02
-1.799e-02
-1.817e-02
SCALARS ezz float 1
LOOKUP_TABLE default
0.000e+00
0.000e+00
1.381e-02
1.142e-02
0.000e+00
0.000e+00
1.381e-02
1.142e-02
0.000e+00
1.136e-02
0.000e+00
1.136e-02
0.000e+00
1.091e-02
0.000e+00
1.091e-02
0.000e+00
1.082e-02
0.000e+00
1.082e-02
0.000e+00
1.104e-02
0.000e+00
1.104e-02
0.000e+00
1.160e-02
0.000e+00
1.160e-02
0.000e+00
1.243e-02
0.000e+00
1.243e-02
0.000e+00
1.370e-02
0.000e+00
1.370e-02
0.000e+00
1.456e-02
0.000e+00
1.456e-02
0.000e+00
1.858e-02
0.000e+00
1.858e-02
6.919e-03
8.083e-03
6.919e-03
8.083e-03
9.072e-03
9.072e-03
9.723e-03
9.723e-03
1.041e-02
1.041e-02
1.132e-02
1.132e-02
1.238e-02
1.238e-02
1.348e-02
1.348e-02
1.433e-02
1.433e-02
1.537e-02
1.537e-02
1.478e-02
1.478e-02
7.515e-03
8.972e-03
7.515e-03
8.972e-03
1.004e-02
1.004e-02
1.083e-02
1.083e-02
1.197e-02
1.197e-02
1.357e-02
1.357e-02
1.529e-02
1.529e-02
1.687e-02
1.687e-02
1.808e-02
1.808e-02
1.878e-02
1.878e-02
1.905e-02
1.905e-02
1.220e-02
1.056e-02
1.220e-02
1.056e-02
1.045e-02
1.045e-02
1.073e-02
1.073e-02
1.264e-02
1.264e-02
1.507e-02
1.507e-02
1.801e-02
1.801e-02
2.026e-02
2.026e-02
2.167e-02
2.167e-02
2.232e-02
2.232e-02
2.255e-02
2.255e-02
1.516e-02
1.288e-02
1.516e-02
1.288e-02
1.126e-02
1.126e-02
1.107e-02
1.107e-02
1.246e-02
1.246e-02
1.684e-02
1.684e-02
2.137e-02
2.137e-02
2.482e-02
2.482e-02
2.613e-02
2.613e-02
2.633e-02
2.633e-02
2.639e-02
2.639e-02
1.827e-02
1.579e-02
1.827e-02
1.579e-02
1.352e-02
1.352e-02
6.069e-03
6.069e-03
8.655e-03
8.655e-03
1.479e-02
1.479e-02
2.776e-02
2.776e-02
3.128e-02
3.128e-02
3.165e-02
3.165e-02
3.038e-02
3.038e-02
2.958e-02
2.958e-02
2.101e-02
1.908e-02
2.101e-02
1.908e-02
1.754e-02
1.754e-02
1.157e-02
1.157e-02
1.570e-02
1.570e-02
3.061e-02
3.061e-02
3.969e-02
3.969e-02
4.177e-02
4.177e-02
3.895e-02
3.895e-02
3.371e-02
3.371e-02
3.067e-02
3.067e-02
2.304e-02
2.262e-02
2.304e-02
2.262e-02
2.315e-02
2.315e-02
2.599e-02
2.599e-02
3.338e-02
3.338e-02
4.519e-02
4.519e-02
5.645e-02
5.645e-02
5.677e-02
5.677e-02
4.853e-02
4.853e-02
3.363e-02
3.363e-02
2.636e-02
2.636e-02
2.439e-02
2.521e-02
2.439e-02
2.521e-02
2.791e-02
2.791e-02
3.332e-02
3.332e-02
4.248e-02
4.248e-02
5.975e-02
5.975e-02
7.176e-02
7.176e-02
9.223e-02
9.223e-02
7.332e-02
7.332e-02